   30
Geometry Step: 21
    S      5.92819417     -1.12284353     -0.11771069      5.96722619
    C      7.18590419      0.03102594     -0.05925672      4.11306148
    C      6.68908224      1.30562857     -0.04113427      4.12582798
    C      5.26791829      1.34231299     -0.07489871      4.16573124
    C      4.69198876      0.08310219     -0.11864309      3.94648925
    C      3.23888828     -0.24552068     -0.15534386      3.95132510
    S      2.00272813      0.96040153     -0.14892911      5.99008956
    C      0.71862080     -0.19398739     -0.18944913      3.95099207
    C      1.24462502     -1.47546728     -0.20993691      4.16127076
    C      2.66168393     -1.50408375     -0.19144748      4.16146273
    H      0.63362066     -2.37558930     -0.23740939      0.89415644
    H      3.23619972     -2.42841107     -0.20228130      0.89442865
    H      8.23754063     -0.25066027     -0.04016328      0.88304741
    H      7.31518381      2.19451462     -0.00432421      0.89874144
    H      4.69429876      2.26731274     -0.06655096      0.89615027
    C     -0.71861410      0.19398667     -0.18943481      3.95098664
    C     -1.24461200      1.47546543     -0.20987617      4.16127361
    C     -2.66168072      1.50408199     -0.19137066      4.16146404
    C     -3.23888240      0.24551922     -0.15530332      3.95132238
    S     -2.00271984     -0.96040419     -0.14894024      5.99009140
    C     -4.69198233     -0.08310425     -0.11859596      3.94649104
    C     -5.26791059     -1.34232112     -0.07487715      4.16573281
    C     -6.68907227     -1.30563410     -0.04109720      4.12582411
    C     -7.18589471     -0.03103569     -0.05917542      4.11305894
    S     -5.92819032      1.12284205     -0.11761279      5.96722743
    H     -0.63361212      2.37558955     -0.23732539      0.89415611
    H     -3.23619421      2.42841497     -0.20216856      0.89442920
    H     -4.69428546     -2.26731777     -0.06656485      0.89614968
    H     -7.31517518     -2.19452717     -0.00430207      0.89874332
    H     -8.23753614      0.25065010     -0.04006130      0.88304871
